70
Lattice="13.0 0.0 0.0 0.0 13.0 0.0 0.0 0.0 13.0" Properties=species:S:1:pos:R:3:force:R:3:map_shift:I:3:n_neighb:I:1 EPS_SCF=0.0001 energy=-10856.63360722738 units=gap_units Integrated_spin_density=6.24797804 opt_dir=/home/tks32/dft_pbe/jan02_oldtrain_again/opt_101_C10H40O20 cutoff=8.0 nneightol=1.2 gap_energy=-2.835750805286703 cp2k_energy=-2.7626864916400464 index=0 pbc="T T T"
O       0.40708645      11.98860288       5.98738366      -1.16718601       3.42930509      -3.12705586        0       -1        0       79 
O       1.46065393       0.26952603       3.46968906      -1.71955923      -0.55352707       2.17855741        0        0        0       84 
C       8.63169141       9.04030646      10.34597964       0.82457984      -2.01781608      -0.70181250       -1       -1       -1       84 
H       9.35688280       7.99043866      10.18336485      -1.34944605       3.19316713       0.70714042       -1       -1       -1       76 
H       7.90257604       8.68982555      11.18628466       0.92910784       0.76990217      -1.58101988       -1       -1       -1       81 
H       8.05441387       9.00309780       9.19224067       1.58863902       1.04452112       3.44441388       -1       -1       -1       81 
H       9.27177783      10.06792909      10.82882366      -1.88610551      -2.97624125      -2.10440301       -1       -1       -1       90 
C       7.19109420      10.29212894       3.66562104      -3.27237911      -0.89637445       1.01348712       -1       -1        0       84 
H       6.66409150      10.91459419       4.64404737       2.18123817      -1.84330014      -2.54552495       -1       -1        0       82 
H       6.01364377      10.14268424       2.93764790       3.83301688       1.23237748       1.23890034        0       -1        0       78 
H       7.21808648       9.09197017       3.82703923       0.58749178       2.79819797       0.04545693       -1       -1        0       86 
H       8.25538530      10.79176226       3.30584764      -3.33692054      -1.72844413       0.81115959       -1       -1        0       84 
O       9.70153129       5.16448732       3.68062635       5.61173822       3.83652299      -0.02185721       -1        0        0       80 
O      11.00134549       6.07534370       3.66032078      -6.05530094      -4.21344551       0.28395633       -1        0        0       77 
O      10.34743722       2.74602535       0.80580577       2.45756408       2.65273650       4.32714063       -1        0        0       89 
O      12.57848372      12.52598638       8.32771172      -4.59823391      -0.09562934      -2.95082029       -1       -1       -1       80 
C       1.92367064       1.64475381       6.64492184      -0.33964601       2.32406604      -0.10262273        0        0       -1       66 
H       2.42965769       2.75802337       6.22891062      -0.12757790      -2.98969009       1.94518709        0        0        0       65 
H       2.02520428       1.13683482       5.60006220      -1.03504499       0.40252654       1.81519236        0        0        0       73 
H       0.95050336       2.24402642       7.07119495       1.82853624      -2.26136622      -1.47148514        0        0       -1       64 
H       2.16576169       0.81447109       7.53415882       0.06659950       2.48870689      -2.42486668        0        0       -1       66 
C      11.37202115       3.06307276       7.85160320       0.07189096       2.22653024       2.38631867       -1        0       -1       84 
H      10.19008646       3.13644515       8.45399610       3.73214508      -0.94757743      -2.24637081       -1        0       -1       88 
H      11.52170014       3.29259343       6.78039951      -1.09311629      -0.13549973       0.02951378       -1        0       -1       74 
H      12.07895606       2.18866793       7.98664564      -1.67899752       0.21463360       0.45028152       -1        0       -1       79 
H      11.95652206       3.96722756       8.39595009      -1.29255704      -1.68189172      -1.08862046       -1        0       -1       65 
C       8.20223444      12.90413153       2.02158345       1.38662979       1.17520164       0.24057746       -1       -1        0       87 
H       7.34247284      12.73772309       2.90973533       2.31387650       0.53578850      -2.77161886       -1       -1        0       84 
H       8.84480084      11.89815292       1.43906927      -2.26364667       3.45802981       1.91173323       -1       -1        0       83 
H      10.81411338       2.35450820       1.74855945      -2.03185053       0.98427452      -3.21962387       -1        0        0       85 
H       8.06735459       0.93107298       1.43943713      -0.13835447      -2.68669846       0.32732189       -1        0        0       85 
C       5.21200425       0.48648901       4.65682726      -0.86778564       2.84601890      -1.31985765        0        0        0       82 
H      12.78526495      12.59179707       7.10230586       0.41959230      -1.08358539       1.69130842       -1       -1       -1       76 
H       4.74344095       1.20767560       3.66196545       0.69777833      -3.17348665       2.68834465        0        0        0       82 
H       4.65847045      12.45539289       5.21020763       1.73633279       3.58041856      -1.69694621        0       -1        0       79 
H       5.96810010       1.43056148       5.01344889      -1.64284427      -3.53353505       0.34113933        0        0        0       80 
O       9.58311787       0.95665366       2.80851461      -1.59600505      -1.06494116       4.07185800       -1        0        0       88 
O       0.04688816       2.18025854      10.35976999      -2.41712511       2.09706878       2.76058965        0        0       -1       80 
C       5.05126391      11.58827931       8.70221920      -1.06376400      -0.46575459      -0.01361060        0       -1       -1       82 
H       4.76337973      11.80459677      11.02974004       3.34821331      -2.83001594      -3.66194630        0       -1       -1       80 
H       4.07808169      12.31598842       8.87772724       1.76019289      -2.49555848      -0.91479495        0       -1       -1       73 
H       5.02493315      10.41377647       8.06117653      -0.57992085       3.71718299       2.10513198        0       -1       -1       74 
H       5.67056483      12.31209247       7.91966545      -0.38294303      -1.59931860       2.50550546        0       -1       -1       88 
C       6.41956724      10.69068992       0.15137774      -0.67283302      -1.70538316       1.76393174        0       -1        0       71 
H       5.89318458      11.17358566       1.41733035       0.88834422      -1.22405298      -2.76554073        0       -1        0       75 
H       3.94001406      11.41223722      12.59272144       3.89961232      -1.20529665       1.15504926        0       -1       -1       79 
H       6.74394663       9.73082459      12.36009189      -1.55412111       2.49016236       1.90735970       -1       -1       -1       69 
H       7.45104927      10.53628579       0.78009181      -1.75369505       0.93514210      -1.03479034       -1       -1        0       74 
C       8.84742451       7.92516869       1.02649580      -5.56003272       2.87224270      -2.43061308       -1       -1        0       74 
H       8.29656715       7.37615613       0.00923440       0.67853173       1.58856961       3.17893385       -1       -1        0       68 
H       9.74766456       7.41958454       0.87194399       1.88534669      -1.20314673       1.33081982       -1       -1        0       73 
H       7.96333052       8.05835278       2.02774080       3.24525297      -1.15352980      -2.98340845       -1       -1        0       77 
H       9.01359438       9.05663798       0.68230307      -0.16941902      -2.28956425       0.74922481       -1       -1        0       77 
O      11.47512563       3.92427771      11.73547884       2.34189063      -3.12410537      -1.62066725       -1        0       -1       74 
O      12.16616835       2.68766205      11.48345393       0.27636488       1.25077652      -0.91660398       -1        0       -1       82 
O      10.87028120      12.25514573       8.09169272       4.50275520       0.68912686       0.77925490       -1       -1       -1       90 
O       0.11149044      12.91801426       4.74105372       2.42971532      -2.15206099       1.76301394        0       -1        0       89 
O       9.31724041       1.02443405       4.25561069       0.74026256       0.03181599      -4.44510541       -1        0        0       86 
O      10.76315689       4.30959240       1.14097628      -0.69600448      -4.31492265      -1.04868286       -1        0        0       76 
O       1.21421818       8.73485268       9.00105055      -2.25788562      -6.68503698      -3.97863844        0       -1       -1       76 
O       0.76576170       7.43112883       8.21055408       2.28827946       6.63362693       4.01929742        0       -1       -1       70 
O      10.31451105       7.01327849       5.63029100       4.95801952       5.39536469      -2.85866215       -1       -1        0       83 
O      11.29541624       8.07930153       5.05202313      -4.56950814      -4.73327593       3.13455011       -1       -1        0       83 
O       5.06876692      11.16078981      12.63651978      -1.94746909       0.60968368      -0.32836364        0       -1       -1       73 
O       5.44444011      11.19708266      10.19355157      -2.51155593       3.56863669      -0.82975837        0       -1       -1       82 
C       6.67195457       3.39485612       1.25105381      -0.23792701      -2.54321447       1.67323659       -1        0        0       83 
H       8.06118169       3.24494340       1.07369573      -4.67807366       0.23711027       0.43108093       -1        0        0       86 
H       6.42307651       4.30385801       1.90525370       0.80390817      -0.91522570      -0.92123338        0        0        0       76 
H       6.19432038       2.34390568       2.03577598       2.00070824       3.08570998      -2.28097365        0        0        0       81 
H       5.89115548       3.35661107       0.35799581       2.23068009       0.12736729       1.20193048        0        0        0       88 
70
Lattice="13.0 0.0 0.0 0.0 13.0 0.0 0.0 0.0 13.0" Properties=species:S:1:pos:R:3:force:R:3:map_shift:I:3:n_neighb:I:1 EPS_SCF=0.0001 energy=-10856.57958884832 units=gap_units Integrated_spin_density=9.96999418 opt_dir=/home/tks32/dft_pbe/jan02_oldtrain_again/opt_102_C10H40O20 cutoff=8.0 nneightol=1.2 gap_energy=-2.8349791141572758 cp2k_energy=-2.8017394382191405 index=1 pbc="T T T"
O       0.64139638      12.03452782       5.97289781      -0.91643348       1.56643845      -1.75251578        0       -1        0       75 
O       1.29518015       0.18635000       3.64753362      -3.80687632      -0.88097223       3.35861035        0        0        0       85 
C       8.63096895       8.93713812      10.49176142       2.96255307      -1.09495250       0.74962121       -1       -1       -1       86 
H       9.22117878       7.93659731      10.64182649      -0.44199398       1.31447413      -0.59449585       -1       -1       -1       74 
H       7.61544983       8.44321205      11.17976175       2.45812741       2.45131977      -2.57381966       -1       -1       -1       75 
H       8.83322628       9.22914530       9.29496325      -1.82072360      -0.99443586       3.08203788       -1       -1       -1       89 
H       9.43414397       9.73509111      11.04701686      -2.90498939      -1.88214607      -0.89544997       -1       -1       -1       87 
C       7.24852093      10.13508433       3.54870456       0.32742706       3.36007436      -0.13291988       -1       -1        0       82 
H       6.84585737      10.88797078       4.67804666       1.86416466      -2.37054759      -3.47888064       -1       -1        0       83 
H       6.44075309      10.47114570       2.64865827       2.50102551      -1.23362792       2.75159410        0       -1        0       76 
H       7.23866049       9.09548430       3.75560212      -1.00420042      -1.20615398       0.60991317       -1       -1        0       86 
H       8.49387188      10.09359098       3.16881084      -3.66006873       1.40403668       1.09281777       -1       -1        0       85 
O       9.62050166       5.31240017       3.54271915       6.05430244       3.67501476       0.32914434       -1        0        0       78 
O      10.92678925       6.09110264       3.67175059      -6.28339547      -4.25702590      -0.92128721       -1        0        0       78 
O      10.51140971       2.71286682       0.72286621       0.52210746       2.43863115       3.20739473       -1        0        0       92 
O      12.56825706      12.60841238       8.22239527      -2.54163900      -1.38602101      -1.18599188       -1       -1       -1       78 
C       1.78658169       1.48227409       6.81913794       2.81876204       3.60185706       1.02265485        0        0       -1       65 
H       2.10777786       2.62375887       6.60739655      -0.56910968      -2.16826350      -0.01415471        0        0       -1       60 
H       2.13069665       0.96714112       5.80859034      -1.71464348       1.05607697       2.34814902        0        0        0       73 
H       0.77848743       1.87123747       7.32652186       1.68857053      -2.12343509      -1.59459730        0        0       -1       64 
H       2.63042604       1.27722591       7.64710803      -2.08366998       0.02924979      -1.54632957        0        0       -1       70 
C      11.38483645       2.96303518       7.65075134      -3.34089755       1.81319243      -0.41678541       -1        0       -1       81 
H      10.19249513       3.50852577       8.09985929       3.37172959      -1.79114534      -1.55026533       -1        0       -1       85 
H      11.17999198       2.64796170       6.33615364       0.63435160       0.59134730       4.41907212       -1        0        0       80 
H      11.51176318       2.09089123       8.48619943       0.39455967       1.82830979      -2.44174245       -1        0       -1       89 
H      12.04014970       3.96877218       7.71664839      -0.91406944      -2.77895420      -0.11341991       -1        0       -1       70 
C       8.22070990       0.07096871       2.02232399       2.58869384       1.48305229      -0.97547246       -1        0        0       86 
H       7.30901286       0.01269972       2.67751575       0.76569307       0.14047943       0.24213341       -1        0        0       86 
H       8.88220044      12.07509511       1.91589698      -1.82673842       2.25427148      -0.31018204       -1       -1        0       83 
H      10.46431137       1.80595574       1.67719503      -0.15256812       3.06540724      -1.56071611       -1        0        0       86 
H       8.02453699       0.88686744       1.18079363       0.66413032      -2.55519279       1.09134783       -1        0        0       86 
C       5.11447547       0.47789221       4.58199303      -2.53925163      -0.04422693       1.45527085        0        0        0       77 
H       0.59909811      12.13570682       7.40165603      -2.97919140       1.14263924      -0.67829885        0       -1       -1       70 
H       4.04916493       0.67684291       3.95153424       3.23860455      -0.13922255       1.44549159        0        0        0       76 
H       4.83207687      12.60116291       5.38165207       1.06978630       1.95437538      -1.83360048        0       -1        0       78 
H       5.89051896       1.30836929       4.97769306      -1.94688459      -1.83947590      -1.19774589        0        0        0       80 
O       9.64198561       0.98847116       2.68093773      -2.60099657      -1.40813481       3.14856318       -1        0        0       85 
O       0.13826638       2.07678063      10.52832080      -3.19013099       2.80710588       2.82503094        0        0       -1       83 
C       5.18109613      11.55287500       8.80898291      -2.28788139       1.60445584      -3.54179186        0       -1       -1       80 
H       5.41847310      11.88047565      11.33368411      -1.11723737      -1.92729748      -2.43929717        0       -1       -1       78 
H       4.03379561      11.82111837       8.62679713       1.71408084      -0.66231713       1.08137987        0       -1       -1       75 
H       5.31083234      10.70355636       7.99855880       0.24261137       0.78115829       2.22131582        0       -1       -1       78 
H       5.59452394      12.49162173       8.06956933      -0.00764550      -1.77216250       2.89316975        0       -1       -1       89 
C       6.52820211      10.74397467       0.23071628       0.98600006      -1.20138340       1.11974956       -1       -1        0       73 
H       6.42350338      11.39716698       1.38331749       0.09187861      -1.67277735      -3.47375211        0       -1        0       76 
H       4.03501807      11.01624573       0.12083945       4.28989417       0.84119802      -1.66162852        0       -1        0       80 
H       6.88029261       9.92574125      12.27804114      -1.51500862       2.26654212       2.16669641       -1       -1       -1       73 
H       7.64746176      10.22805440       0.68075889      -2.38439672       1.22471307      -0.65027143       -1       -1        0       72 
C       8.78158641       7.87900776       1.02750123      -1.85409614      -3.49353974       3.10028480       -1       -1        0       77 
H       7.89854216       7.02908951       0.56138177       2.79250464       3.03629729       0.61431298       -1       -1        0       71 
H       9.68531237       7.15824196       1.49596763      -2.51839098       1.98809123      -1.08006774       -1       -1        0       72 
H       7.94255575       8.28877151       2.15099289       3.00644750      -0.77175617      -3.59914134       -1       -1        0       75 
H       9.33261060       8.62377728       0.37677880      -1.44422018      -0.75990947       0.78719880       -1       -1        0       77 
O      11.43302080       3.99905476      11.75137967       2.13243088      -2.96863597      -1.29428999       -1        0       -1       71 
O      12.17812066       2.63918145      11.49528373       1.06678367       0.41500660      -1.38395047       -1        0       -1       81 
O      10.81294079      12.30084637       7.91831604       4.73838710       0.59513897       0.59580878       -1       -1       -1       92 
O       0.01164565      12.90672649       4.73493882       5.56212136      -1.30337035      -0.33400910        0       -1        0       88 
O       9.29331817       0.98369789       4.29722595       1.05278509       0.31603605      -3.88845522       -1        0        0       87 
O      10.84642444       4.28689836       1.13224514      -0.69607366      -5.42828488      -1.00458020       -1        0        0       79 
O       1.06547343       8.75454625       9.00123793      -0.84695036      -6.56177240      -3.50429427        0       -1       -1       75 
O       0.89251257       7.44429217       8.30978458       0.91883654       6.56979088       3.60210310        0       -1       -1       71 
O      10.20443084       7.08991182       5.64540618       4.85154953       5.04573239      -2.46374329       -1       -1        0       84 
O      11.13739707       8.04448224       5.09490695      -4.60142949      -4.36142673       3.08508783       -1       -1        0       85 
O       5.10115596      11.32561380      12.64201928      -1.37567082      -0.97162158       1.48353375        0       -1       -1       72 
O       5.50575531      11.24839426      10.14565501       0.63182777       1.26765179       0.05918794        0       -1       -1       82 
C       6.56696600       3.30534952       1.30694733       1.26541762      -1.64445667      -5.05883199       -1        0        0       83 
H       7.70056368       3.33500837       0.62705160      -2.66588747      -0.50959098       2.75068036       -1        0        0       84 
H       6.48040660       4.30148363       1.84280366      -0.14811839      -1.94880235       0.10094611        0        0        0       80 
H       6.26108117       2.07774730       1.65316441       1.21011713       4.42529003      -0.22027306        0        0        0       86 
H       6.01687619       3.43219692       0.23212546       0.22321633      -0.24141685       2.52674593        0        0        0       88 
70
Lattice="13.0 0.0 0.0 0.0 13.0 0.0 0.0 0.0 13.0" Properties=species:S:1:pos:R:3:force:R:3:map_shift:I:3:n_neighb:I:1 EPS_SCF=0.0001 energy=-10860.691230867917 units=gap_units Integrated_spin_density=12.78228364 opt_dir=/home/tks32/dft_pbe/jan02_oldtrain_again/opt_103_C10H40O20 cutoff=8.0 nneightol=1.2 gap_energy=-2.8937168572943586 cp2k_energy=-2.88268138466722 index=2 pbc="T T T"
O       0.90173917      12.04624838       5.92314860      -2.00606376      -0.32489027       0.85949465        0       -1        0       76 
O       1.08906868       0.19996589       3.89966157      -3.50323694      -0.61773989       1.57712712        0        0        0       86 
C       8.73360985       8.80904045      10.67410132      -3.75712080      -0.46081454      -1.32149586       -1       -1       -1       85 
H       9.35257269       7.87954924      10.87372894      -0.63451008       0.94592767      -0.75257150       -1       -1       -1       73 
H       7.41741973       8.44948096      10.63447760       3.82359911       0.84773220       0.94134350       -1       -1       -1       73 
H       8.64296021       9.19046249       9.54009172       1.45074781      -0.41207495       2.50495725       -1       -1       -1       87 
H       8.95781966       9.56699747      11.52587862      -0.58690927      -1.02183416      -1.84061335       -1       -1       -1       84 
C       7.35673696      10.06426557       3.48859390      -0.02818626      -3.62003871       3.48835281       -1       -1        0       85 
H       7.60801608      10.69316112       4.55782930      -1.97532437      -0.53050317      -2.96747339       -1       -1        0       91 
H       6.45961350       9.86541818       2.59171469       2.93405592       1.84019223       2.23558804        0       -1        0       77 
H       6.83300062       8.97750798       4.17140164       1.85684583       2.85247739      -1.73430144       -1       -1        0       83 
H       8.52197279       9.89628441       3.25671916      -3.01457017      -0.13328766      -0.53419131       -1       -1        0       87 
O       9.58050810       5.51678130       3.38147306       5.88264086       2.10900711       0.75141935       -1        0        0       78 
O      10.86552429       6.05562557       3.62546104      -5.82666182      -3.13769127      -1.19545611       -1        0        0       78 
O      10.63874858       2.78831983       0.71134679      -0.16977885       1.86200043       3.39822269       -1        0        0       91 
O      12.44524808      12.61889228       8.13315147      -4.21844245      -2.78762687      -3.20754323       -1       -1       -1       79 
C       1.75527708       1.46071875       7.13475735       3.16763679      -0.31309517      -3.22964140        0        0       -1       65 
H       2.04554116       2.64178310       6.88248685      -1.74522878      -2.85185743       0.65863374        0        0       -1       59 
H       2.05618564       0.75266541       6.03993208      -1.51024862       2.09319508       2.60078340        0        0        0       70 
H       0.60605222       1.06714355       7.37690585       3.24120537       1.73190422       0.09099315        0        0       -1       67 
H       2.87700514       1.15520877       7.52609021      -3.12585173       0.19667372       0.48581949        0        0       -1       69 
C      11.41871721       2.95816667       7.48733270      -2.40601610      -1.84527179      -3.48268705       -1        0       -1       77 
H      10.46848643       3.65417476       7.17114375       2.36298227      -1.64202645       1.35363742       -1        0       -1       81 
H      11.10302362       1.88027366       6.45218487       1.22068722       2.78777713       2.97873744       -1        0        0       83 
H      11.26106062       2.36082665       8.58148758       1.17627387       2.20176194      -3.14366132       -1        0       -1       90 
H      12.39680239       3.44525512       6.93861175      -2.17323575      -1.58942133       2.35363852       -1        0       -1       70 
C       8.29963565       0.15518962       1.90277003       1.07420560       3.15847759       1.67370573       -1        0        0       85 
H       7.24244613       0.57995657       2.70250711       3.04018788      -1.95469931      -2.68413121       -1        0        0       87 
H       8.79300139      12.06024443       2.11406982      -1.88977901       2.87413791      -1.14371589       -1       -1        0       82 
H      10.50880670       1.92430951       1.70553400       0.21106056       2.36971820      -1.36023256       -1        0        0       91 
H       8.50844025       0.98778846       0.93727913      -1.06116823      -3.65887338       2.43406618       -1        0        0       85 
C       4.98584722       0.48936902       4.51706939      -0.82686616      -1.88270904       2.75562657        0        0        0       81 
H       0.00157196      11.91752856       7.16152673      -0.42356090       2.33232150       0.35097049        0       -1       -1       78 
H       3.87806103       0.48957534       4.30679231       1.37207429       1.81907557      -0.79021610        0        0        0       72 
H       4.80185820      12.57922855       5.20790091       1.48512398       0.43579012      -0.76603115        0       -1        0       80 
H       5.78071696       1.15828455       5.00554374      -1.62529252      -0.40072988      -1.15871674        0        0        0       81 
O       9.69839810       0.96912308       2.74590897      -2.29390861      -0.74755039       2.67987794       -1        0        0       85 
O       0.25343694       1.95697341      10.64461510      -3.86193833       2.63944180       2.52744913        0        0       -1       80 
C       5.20595158      11.55790317       8.80108299       0.91995739      -1.27377142       1.85575936        0       -1       -1       80 
H       5.03666090      11.76932436      11.27388250       1.73266182      -2.05899559      -1.75328671        0       -1       -1       79 
H       3.85161004      11.38847110       8.57494751       3.98419318       1.57937275       0.94648049        0       -1       -1       70 
H       5.63590540      10.65745216       8.10591959      -0.58614355       2.24179662       1.32636863        0       -1       -1       80 
H       6.07104740      12.56743080       8.96701386      -3.18813655      -1.95551677      -1.90591368        0       -1       -1       88 
C       6.78456698      10.72333852       0.24555453       0.12490119      -1.92429425      -0.66102927       -1       -1        0       71 
H       6.65452016      11.75170327       0.88686164       1.24725973      -3.26004246      -1.45497295       -1       -1        0       74 
H       4.31751413      10.70257396       0.00496040       2.66910930       3.42661598      -1.53971327        0       -1        0       72 
H       6.21371407       9.98937601      12.46491720       1.19204552       1.91076509       1.37643962        0       -1       -1       70 
H       7.63586876       9.80519336       0.36799793      -1.51312459       2.68194966       0.40526997       -1       -1        0       71 
C       8.69672414       7.83122179       1.10892497       1.31776763      -2.20322745       2.43272214       -1       -1        0       76 
H       7.73049311       7.20509682       0.66662062       1.86034035       1.97366357       1.84379952       -1       -1        0       72 
H       9.39434065       6.89775079       1.82313401      -2.10573330       2.68650932      -2.68943737       -1       -1        0       73 
H       8.81079659       8.76401393       2.05666348      -0.99706707      -2.98675984      -3.23149974       -1       -1        0       78 
H       9.19978728       8.10908267       0.14537919      -0.01982291       0.18609673       1.18196795       -1       -1        0       76 
O      11.47100718       4.03633963      11.63731202       2.24854991      -3.61096944      -0.98780980       -1        0       -1       70 
O      12.12224032       2.53979942      11.55554353       1.83037334       1.21490329      -2.18424668       -1        0       -1       83 
O      10.91594958      12.38372287       7.78431115       5.45258912       0.65759051       1.29147163       -1       -1       -1       90 
O       0.02322709      12.87693024       4.62603011       4.73882463      -0.10163078      -1.09319352        0       -1        0       88 
O       9.26535296       0.93770908       4.29122842       1.00858532       0.46034273      -3.87134274       -1        0        0       89 
O      10.89381873       4.16382699       1.06418545      -0.51187140      -4.10224792      -0.59616758       -1        0        0       79 
O       0.97678913       8.77268590       9.02799383       0.43268079      -5.62064556      -2.72169791        0       -1       -1       74 
O       1.08857303       7.52730112       8.41367941      -0.50364302       5.47208260       2.74754632        0       -1       -1       71 
O      10.08392582       7.16266986       5.65222053       4.38933068       5.38714841      -2.26424590       -1       -1        0       86 
O      10.95539156       8.15532208       5.12284229      -4.11490189      -4.79143798       3.06014472       -1       -1        0       79 
O       5.10204608      11.49363094      12.63945433      -4.81257414      -2.22136620       0.32538421        0       -1       -1       70 