70
Lattice="13.0 0.0 0.0 0.0 13.0 0.0 0.0 0.0 13.0" Properties=species:S:1:pos:R:3:force:R:3 EPS_SCF=0.0001 energy=-10851.519105272115 units=gap_units Integrated_spin_density=6.2479780406 opt_dir=/home/tks32/dft_pbe/jan02_oldtrain_again/opt_101_C10H40O20 pbc="T T T"
O       0.40708645      11.98860288       5.98738366      -1.12278438       3.29568913      -3.71211943 
O       1.46065393       0.26952603       3.46968906      -2.58533595      -0.61339841       2.29509335 
C       8.63169141       9.04030646      10.34597964       0.94991573      -1.81832132      -0.75666646 
H       9.35688280       7.99043866      10.18336485      -1.47659237       3.22392089       0.76050358 
H       7.90257604       8.68982555      11.18628466       0.88417725       0.64982940      -1.58000729 
H       8.05441387       9.00309780       9.19224067       1.57985148       1.00762003       3.53474929 
H       9.27177783      10.06792909      10.82882366      -1.84198884      -3.07004910      -2.15610259 
C       7.19109420      10.29212894       3.66562104      -2.90598545      -1.02216425       0.93561320 
H       6.66409150      10.91459419       4.64404737       1.93393149      -1.93467146      -2.53915894 
H       6.01364377      10.14268424       2.93764790       3.59712117       1.24908623       1.12986571 
H       7.21808648       9.09197017       3.82703923       0.56803181       2.84990403       0.29813486 
H       8.25538530      10.79176226       3.30584764      -3.20733522      -1.52839702       0.63594750 
O       9.70153129       5.16448732       3.68062635       5.84535154       4.15934537      -0.27895957 
O      11.00134549       6.07534370       3.66032078      -6.12926357      -4.66495953      -0.30575767 
O      10.34743722       2.74602535       0.80580577       2.52627308       2.72192068       4.61519171 
O      12.57848372      12.52598638       8.32771172      -5.14345215      -0.62112149      -3.04184255 
C       1.92367064       1.64475381       6.64492184      -0.39684312       2.14973294      -0.13181533 
H       2.42965769       2.75802337       6.22891062       0.13208941      -2.99733624       2.20644171 
H       2.02520428       1.13683482       5.60006220      -1.29071137       0.54835361       1.91286901 
H       0.95050336       2.24402642       7.07119495       1.51069600      -2.19005761      -1.67517308 
H       2.16576169       0.81447109       7.53415882       0.47542786       2.77872098      -2.13098497 
C      11.37202115       3.06307276       7.85160320       0.07589949       2.22193621       2.62041095 
H      10.19008646       3.13644515       8.45399610       3.61050994      -0.80203975      -2.34815321 
H      11.52170014       3.29259343       6.78039951      -1.18671229       0.12831606       0.13309779 
H      12.07895606       2.18866793       7.98664564      -1.55930476       0.39868660       0.54400999 
H      11.95652206       3.96722756       8.39595009      -1.20506380      -1.76430346      -1.04928939 
C       8.20223444      12.90413153       2.02158345       1.21564903       1.53517599      -0.01696105 
H       7.34247284      12.73772309       2.90973533       2.70810151       0.32005403      -2.42529865 
H       8.84480084      11.89815292       1.43906927      -2.05233029       3.35604064       1.96015572 
H      10.81411338       2.35450820       1.74855945      -1.66964161       1.21395468      -3.27865866 
H       8.06735459       0.93107298       1.43943713      -0.32824505      -2.80012233       0.42959332 
C       5.21200425       0.48648901       4.65682726      -0.76208172       3.01187429      -1.16600771 
H      12.78526495      12.59179707       7.10230586       0.21933723      -0.77949734       1.65546197 
H       4.74344095       1.20767560       3.66196545       0.56863345      -3.11406073       2.66156814 
H       4.65847045      12.45539289       5.21020763       1.81857997       3.59871371      -1.70981715 
H       5.96810010       1.43056148       5.01344889      -1.69363000      -3.46729331       0.21371422 
O       9.58311787       0.95665366       2.80851461      -2.12282634      -1.87396256       4.46030330 
O       0.04688816       2.18025854      10.35976999      -2.24928606       2.40830212       2.67341218 
C       5.05126391      11.58827931       8.70221920      -1.18415405      -0.17984508      -0.42735543 
H       4.76337973      11.80459677      11.02974004       3.04281854      -2.32088615      -3.79223038 
H       4.07808169      12.31598842       8.87772724       1.71637758      -2.53406147      -0.96220458 
H       5.02493315      10.41377647       8.06117653      -0.56181899       3.60501703       2.04873331 
H       5.67056483      12.31209247       7.91966545      -0.31172314      -1.67228624       2.60726849 
C       6.41956724      10.69068992       0.15137774      -0.90167206      -2.58856217       1.33407045 
H       5.89318458      11.17358566       1.41733035       0.90253852      -1.89316613      -1.71999307 
H       3.94001406      11.41223722      12.59272144       3.73189173      -0.63970646       1.36087369 
H       6.74394663       9.73082459      12.36009189      -1.73882023       2.31827853       1.88133957 
H       7.45104927      10.53628579       0.78009181      -0.85196544       1.94218371      -0.95883592 
C       8.84742451       7.92516869       1.02649580      -5.63896136       2.54955648      -1.99594445 
H       8.29656715       7.37615613       0.00923440       0.67365685       1.68878142       2.87845613 
H       9.74766456       7.41958454       0.87194399       1.85868815      -0.98940222       1.52898169 
H       7.96333052       8.05835278       2.02774080       3.39231222      -1.26512477      -2.93067987 
H       9.01359438       9.05663798       0.68230307      -0.19816008      -2.13832907       0.58775217 
O      11.47512563       3.92427771      11.73547884       2.83175256      -3.23858235      -2.10736218 
O      12.16616835       2.68766205      11.48345393      -0.43542047       1.00355306      -0.92298805 
O      10.87028120      12.25514573       8.09169272       5.28024565       0.48744674       0.85485124 
O       0.11149044      12.91801426       4.74105372       2.61434160      -2.46747966       1.51510801 
O       9.31724041       1.02443405       4.25561069       1.20370986       0.09415843      -4.39852689 
O      10.76315689       4.30959240       1.14097628      -0.87828633      -4.00584999      -0.70106275 
O       1.21421818       8.73485268       9.00105055      -2.12706043      -6.24416309      -3.69676326 
O       0.76576170       7.43112883       8.21055408       2.15971448       6.05225748       3.49410786 
O      10.31451105       7.01327849       5.63029100       4.29166463       5.03565967      -2.21745014 
O      11.29541624       8.07930153       5.05202313      -4.29178959      -4.48329154       2.70521108 
O       5.06876692      11.16078981      12.63651978      -1.76984522       0.74736112      -1.26595370 
O       5.44444011      11.19708266      10.19355157      -2.13070317       3.09891950      -0.55782504 
C       6.67195457       3.39485612       1.25105381       0.07640034      -2.51491498       1.60019405 
H       8.06118169       3.24494340       1.07369573      -4.74330208       0.52888419       0.25696738 
H       6.42307651       4.30385801       1.90525370       0.66036681      -1.09227670      -0.94075232 
H       6.19432038       2.34390568       2.03577598       1.69170322       3.03482138      -2.27799809 
H       5.89115548       3.35661107       0.35799581       2.18440118       0.12815305       1.31421742 
70
Lattice="13.0 0.0 0.0 0.0 13.0 0.0 0.0 0.0 13.0" Properties=species:S:1:pos:R:3:force:R:3 EPS_SCF=0.0001 energy=-10854.252811532651 units=gap_units Integrated_spin_density=9.9699941755 opt_dir=/home/tks32/dft_pbe/jan02_oldtrain_again/opt_102_C10H40O20 pbc="T T T"
O       0.64139638      12.03452782       5.97289781      -0.58779074       1.11894521      -2.15302292 
O       1.29518015       0.18635000       3.64753362      -4.00237026      -0.75965717       3.24189239 
C       8.63096895       8.93713812      10.49176142       2.72490367      -1.14413534       0.89612568 
H       9.22117878       7.93659731      10.64182649      -0.50257769       1.50921144      -0.57701781 
H       7.61544983       8.44321205      11.17976175       2.33056532       2.45302492      -2.54900832 
H       8.83322628       9.22914530       9.29496325      -1.78744031      -0.89349133       3.07641721 
H       9.43414397       9.73509111      11.04701686      -2.74232495      -1.89774270      -0.93445106 
C       7.24852093      10.13508433       3.54870456       0.40054396       3.30114038       0.11939690 
H       6.84585737      10.88797078       4.67804666       1.78898348      -2.38017733      -3.55897937 
H       6.44075309      10.47114570       2.64865827       2.33044551      -1.17182869       2.57950726 
H       7.23866049       9.09548430       3.75560212      -1.11299773      -1.21841914       0.62309507 
H       8.49387188      10.09359098       3.16881084      -3.50957716       1.30697822       1.17573831 
O       9.62050166       5.31240017       3.54271915       6.12429260       3.43882862       0.86244731 
O      10.92678925       6.09110264       3.67175059      -6.00207520      -4.57866405      -1.49193106 
O      10.51140971       2.71286682       0.72286621       0.77662954       1.83669031       2.85703987 
O      12.56825706      12.60841238       8.22239527      -2.99948980      -1.42468436      -1.13954129 
C       1.78658169       1.48227409       6.81913794       2.76477840       3.68598828       1.00416498 
H       2.10777786       2.62375887       6.60739655      -0.16110225      -1.84409406       0.01178748 
H       2.13069665       0.96714112       5.80859034      -1.77190673       0.73170413       2.13222681 
H       0.77848743       1.87123747       7.32652186       1.55409108      -2.16440160      -1.48907868 
H       2.63042604       1.27722591       7.64710803      -1.98783930      -0.02610698      -1.45033266 
C      11.38483645       2.96303518       7.65075134      -3.41182073       1.74885165      -0.35265665 
H      10.19249513       3.50852577       8.09985929       3.23434158      -1.66094562      -1.59044083 
H      11.17999198       2.64796170       6.33615364       0.71377994       0.68787196       4.41317498 
H      11.51176318       2.09089123       8.48619943       0.24042130       2.03884125      -2.51655020 
H      12.04014970       3.96877218       7.71664839      -0.95147331      -2.63210432      -0.03271986 
C       8.22070990       0.07096871       2.02232399       2.86832084       1.39988710      -0.99437679 
H       7.30901286       0.01269972       2.67751575       1.38451653       0.19172615       0.11431228 
H       8.88220044      12.07509511       1.91589698      -1.99319388       2.32463533      -0.30881934 
H      10.46431137       1.80595574       1.67719503      -0.34130934       3.13458071      -1.32390637 
H       8.02453699       0.88686744       1.18079363       0.56818453      -2.39815654       1.18048045 
C       5.11447547       0.47789221       4.58199303      -2.53326083      -0.09174211       1.75545732 
H       0.59909811      12.13570682       7.40165603      -3.19382099       1.17096326      -0.87746975 
H       4.04916493       0.67684291       3.95153424       3.33204196      -0.04736589       1.42337310 
H       4.83207687      12.60116291       5.38165207       1.12789830       2.02314158      -1.92212396 
H       5.89051896       1.30836929       4.97769306      -1.95875961      -1.86310736      -1.27522921 
O       9.64198561       0.98847116       2.68093773      -3.55968437      -2.06098822       3.54908011 
O       0.13826638       2.07678063      10.52832080      -2.87442979       3.07996019       2.56717574 
C       5.18109613      11.55287500       8.80898291      -1.76709362       1.40193113      -3.20515492 
H       5.41847310      11.88047565      11.33368411      -0.94990442      -2.07993365      -2.31817158 
H       4.03379561      11.82111837       8.62679713       1.55403709      -0.45884476       0.84886006 
H       5.31083234      10.70355636       7.99855880       0.18207474       0.66484465       2.19795192 
H       5.59452394      12.49162173       8.06956933      -0.12199011      -1.54169373       2.65890036 
C       6.52820211      10.74397467       0.23071628       0.92590625      -0.67798299       0.89934161 
H       6.42350338      11.39716698       1.38331749       0.27442569      -1.89425217      -3.12345760 
H       4.03501807      11.01624573       0.12083945       4.39282675       1.09618837      -1.83815018 
H       6.88029261       9.92574125      12.27804114      -1.36512578       2.08637787       1.91606695 
H       7.64746176      10.22805440       0.68075889      -1.03744997       0.72820949      -0.14312870 
C       8.78158641       7.87900776       1.02750123      -1.96403706      -3.50935965       3.12696510 
H       7.89854216       7.02908951       0.56138177       2.91754462       2.76853889       0.65147902 
H       9.68531237       7.15824196       1.49596763      -2.56557702       1.89884467      -0.95795557 
H       7.94255575       8.28877151       2.15099289       3.04719713      -0.83344475      -3.58074119 
H       9.33261060       8.62377728       0.37677880      -1.35500438      -0.53988440       0.54655949 
O      11.43302080       3.99905476      11.75137967       2.49477347      -2.64035757      -2.02474698 
O      12.17812066       2.63918145      11.49528373       0.56949579      -0.24749441      -1.08394066 
O      10.81294079      12.30084637       7.91831604       5.43283137       0.70242544       0.63078524 
O       0.01164565      12.90672649       4.73493882       5.15631538      -1.36151081      -0.19871646 
O       9.29331817       0.98369789       4.29722595       1.31068421       0.41397129      -4.08239173 
O      10.84642444       4.28689836       1.13224514      -0.82524910      -5.20791691      -0.71248102 
O       1.06547343       8.75454625       9.00123793      -0.82151946      -6.40431506      -3.40126532 
O       0.89251257       7.44429217       8.30978458       0.89322239       6.37239636       3.34449690 
O      10.20443084       7.08991182       5.64540618       4.47024730       5.26841651      -1.78888115 
O      11.13739707       8.04448224       5.09490695      -4.66630936      -4.24830760       3.04219479 
O       5.10115596      11.32561380      12.64201928      -2.67030218      -0.21901173       1.00903825 
O       5.50575531      11.24839426      10.14565501       0.42257266       1.18968603       0.21972392 
C       6.56696600       3.30534952       1.30694733       1.33569231      -1.84920489      -5.05976736 
H       7.70056368       3.33500837       0.62705160      -2.68238122      -0.39227015       2.75178918 
H       6.48040660       4.30148363       1.84280366      -0.09934743      -1.74040043       0.13007880 
H       6.26108117       2.07774730       1.65316441       0.95563232       4.30141580      -0.41057847 
H       6.01687619       3.43219692       0.23212546       0.28308362      -0.19600858       2.56754752 
70
Lattice="13.0 0.0 0.0 0.0 13.0 0.0 0.0 0.0 13.0" Properties=species:S:1:pos:R:3:force:R:3 EPS_SCF=0.0001 energy=-10859.918747784017 units=gap_units Integrated_spin_density=12.7822836357 opt_dir=/home/tks32/dft_pbe/jan02_oldtrain_again/opt_103_C10H40O20 pbc="T T T"
O       0.90173917      12.04624838       5.92314860      -3.00752398      -0.09475390       0.18044209 
O       1.08906868       0.19996589       3.89966157      -3.67868120      -0.10611921       1.07628392 
C       8.73360985       8.80904045      10.67410132      -3.61445195      -0.43586938      -1.14898495 
H       9.35257269       7.87954924      10.87372894      -0.72114153       0.94488408      -0.76128468 
H       7.41741973       8.44948096      10.63447760       3.77405319       0.84958048       0.94684738 
H       8.64296021       9.19046249       9.54009172       1.29220466      -0.48414493       2.57313093 
H       8.95781966       9.56699747      11.52587862      -0.63393484      -0.85997956      -1.89121878 
C       7.35673696      10.06426557       3.48859390      -0.35614872      -3.58288806       3.42534987 
H       7.60801608      10.69316112       4.55782930      -2.03651132      -0.47876104      -3.25947308 
H       6.45961350       9.86541818       2.59171469       2.83180912       1.98947298       2.52066345 
H       6.83300062       8.97750798       4.17140164       2.22113916       2.55744102      -1.84846236 
H       8.52197279       9.89628441       3.25671916      -2.77890353      -0.28680452      -0.20023239 
O       9.58050810       5.51678130       3.38147306       5.81480734       2.22984286       1.15301336 
O      10.86552429       6.05562557       3.62546104      -5.76991845      -3.00047761      -1.11827621 
O      10.63874858       2.78831983       0.71134679       0.02096478       0.65767435       3.06781121 
O      12.44524808      12.61889228       8.13315147      -4.17637430      -2.52921905      -2.77515691 
C       1.75527708       1.46071875       7.13475735       2.88879248      -0.14249106      -3.18858673 
H       2.04554116       2.64178310       6.88248685      -1.61069084      -2.81904462       0.48333041 
H       2.05618564       0.75266541       6.03993208      -1.31354379       2.01374111       2.28746540 
H       0.60605222       1.06714355       7.37690585       3.44153908       1.36107167       0.10407569 
H       2.87700514       1.15520877       7.52609021      -3.14486615       0.11610074       0.51790403 
C      11.41871721       2.95816667       7.48733270      -2.26065599      -1.79369940      -3.29308614 
H      10.46848643       3.65417476       7.17114375       2.21835672      -1.46657484       1.20527463 
H      11.10302362       1.88027366       6.45218487       0.93105000       2.77931542       2.94309316 
H      11.26106062       2.36082665       8.58148758       1.08308911       2.06029505      -3.13878292 
H      12.39680239       3.44525512       6.93861175      -2.11033386      -1.34631096       2.24767398 
C       8.29963565       0.15518962       1.90277003       1.46493036       3.41196882       2.15306457 
H       7.24244613       0.57995657       2.70250711       3.44018617      -1.74030067      -2.69552316 
H       8.79300139      12.06024443       2.11406982      -1.76343494       2.69753530      -1.22454505 
H      10.50880670       1.92430951       1.70553400      -0.06569066       2.65298271      -1.29759318 
H       8.50844025       0.98778846       0.93727913      -1.03847173      -3.38966501       2.26326361 
C       4.98584722       0.48936902       4.51706939      -1.03266772      -1.99813760       2.88534978 
H       0.00157196      11.91752856       7.16152673       0.07666053       1.82417469       0.09284871 
H       3.87806103       0.48957534       4.30679231       1.19325215       1.80614303      -0.85000163 
H       4.80185820      12.57922855       5.20790091       1.50190797       0.59749511      -0.77699977 
H       5.78071696       1.15828455       5.00554374      -1.58422184      -0.40482691      -1.27515979 
O       9.69839810       0.96912308       2.74590897      -2.84501122      -1.16335022       2.78709969 
O       0.25343694       1.95697341      10.64461510      -3.66742388       2.81954753       2.69229951 
C       5.20595158      11.55790317       8.80108299       0.62330384      -1.24285388       1.23333822 
H       5.03666090      11.76932436      11.27388250       1.28451089      -1.93707030      -0.81299779 
H       3.85161004      11.38847110       8.57494751       3.93052900       1.57312187       0.79367904 
H       5.63590540      10.65745216       8.10591959      -0.48984301       2.31331373       1.48209710 
H       6.07104740      12.56743080       8.96701386      -3.04900822      -1.91495161      -2.06136566 
C       6.78456698      10.72333852       0.24555453       1.63533795      -2.26289748       0.30133537 
H       6.65452016      11.75170327       0.88686164       0.82292791      -3.20328573      -1.65119600 
H       4.31751413      10.70257396       0.00496040       2.99065137       3.30115015      -1.78415289 
H       6.21371407       9.98937601      12.46491720       0.72393683       1.86166806       1.43407866 
H       7.63586876       9.80519336       0.36799793      -1.17692153       2.58081133       0.50559668 
C       8.69672414       7.83122179       1.10892497       1.29817168      -2.05130956       2.43605718 
H       7.73049311       7.20509682       0.66662062       1.71805548       2.02262273       2.00060689 
H       9.39434065       6.89775079       1.82313401      -2.01963871       2.67042096      -2.72265138 
H       8.81079659       8.76401393       2.05666348      -1.25061758      -2.85889107      -3.34751537 
H       9.19978728       8.10908267       0.14537919       0.26571170      -0.14963616       1.23227893 
O      11.47100718       4.03633963      11.63731202       2.26474919      -3.03154117      -0.79673608 
O      12.12224032       2.53979942      11.55554353       1.42246550       0.52692861      -1.94028726 
O      10.91594958      12.38372287       7.78431115       5.08655260       0.88232811       1.04750762 
O       0.02322709      12.87693024       4.62603011       5.39144844      -0.48135991       0.03201898 
O       9.26535296       0.93770908       4.29122842       1.39558410       0.49913292      -4.03743651 
O      10.89381873       4.16382699       1.06418545      -0.77844319      -4.25247845      -0.95617020 
O       0.97678913       8.77268590       9.02799383       0.41816116      -5.64813814      -2.53847811 
O       1.08857303       7.52730112       8.41367941      -0.44511918       5.67127241       2.71716825 
O      10.08392582       7.16266986       5.65222053       3.95984626       4.81858296      -1.78100998 
O      10.95539156       8.15532208       5.12284229      -3.97777302      -4.07835664       2.66168230 
O       5.10204608      11.49363094      12.63945433      -5.57442924      -1.59917435       0.12620878 
O       5.64251437      11.27428081      10.20431400      -1.85010067       0.40784127       0.07667647 
C       6.55000027       3.22571304       1.13916801      -2.28988224       0.57406156       3.85169023 
H       7.63069069       3.14559938       0.83082547      -1.18897178       0.88235022       0.11867236 
H       6.33016362       3.82443240       2.33512929       1.30968045      -1.34981229      -3.53325908 
H       6.25093271       2.17570090       1.52694415      -0.00745723       1.42579302      -1.22063132 
H       5.71220516       3.75094990       0.49671041       2.02710519      -1.33099953       0.73767064 
70
Lattice="13.0 0.0 0.0 0.0 13.0 0.0 0.0 0.0 13.0" Properties=species:S:1:pos:R:3:force:R:3 EPS_SCF=0.0001 energy=-10858.812945734662 units=gap_units Integrated_spin_density=11.3545866142 opt_dir=/home/tks32/dft_pbe/jan02_oldtrain_again/opt_106_C10H40O20 pbc="T T T"
O       0.46030044      12.51401541       6.19879425      -0.09794053      -0.91870048       1.55521928 
O       1.94691441       0.38557441       3.95840978      -4.82292246      -0.71741600       1.16788873 
C       9.45839103       8.41530074      10.81680069       0.15159482      -0.78964446       2.53431446 
H      10.34302348       8.77808008      10.28703417      -0.53453496       0.28154302      -0.91632941 
H       9.37430814       7.27802160      10.67274239      -0.27638898       1.56831494      -0.24919237 
H       8.42756447       9.01369359      10.73766962       2.44628297      -1.28121680       0.07494149 
H       9.94514654       8.44976737      11.91389644      -1.58015127       0.27476970      -2.17958808 
C       6.74853641       9.25925573       3.34697068       0.17212303       0.51353521       0.02069481 
H       5.70923821       9.94902721       2.82645726       3.36673900      -2.03250142       1.97464183 
H       6.88968026       9.28418846       4.46973758      -1.13409466       0.58683686      -0.71611759 
H       7.91226912       9.74242648       3.08176844      -3.71669651      -1.65323848       0.03258976 
H       6.54667956       8.07628351       3.20960346       0.77854192       2.76438451      -0.43573311 
O       9.75670262       4.66849111       3.80596715       0.81998657       6.62272207       0.22396933 
O       9.89971583       6.09036529       3.83607613      -0.79324606      -6.92528488      -0.31575720 
O      10.22543050       2.49354406       1.04864486       1.05045564       4.01081325       4.16319946 
O      12.04436471      12.30419547       8.72793268      -5.03891777      -1.35391474      -2.90129782 
C       2.40326263       1.71928821       7.07252186      -2.09055899      -1.26875723       2.61280974 
H       1.47649627       2.16551881       6.60271319       1.39018376      -0.57933232      -0.69071612 
H       1.80618717       0.81845166       7.67308467       1.44314334       2.06041229      -0.92017938 
H       2.63707288       2.56482074       7.87194902       0.47755725      -1.94056442      -1.52091048 
H       3.19338043       1.06825790       6.50916381      -1.43330322       2.06063135       0.73009154 
C      11.62758936       3.83834513       7.43271506       0.20328069      -5.24579183      -1.19864376 
H      11.79070796       4.92452450       7.62512576       0.49036649      -0.96255425      -0.30166910 
H      12.29892829       3.11852010       6.61380927      -1.04055021       2.94524929       1.92525710 
H      10.57141855       3.66833893       6.80690825       2.12575791       0.33563235       2.45943776 
H      11.95887921       2.98350612       8.50012450      -1.79881950       2.97901610      -2.93069993 
C       7.97874462      12.90754972       2.72517248       4.15833801      -0.63522965       1.67128763 
H       7.12753106       0.31212570       3.62501777       2.53150888      -2.06842077      -2.74464923 
H       9.18700415      12.02611562       2.73157329      -3.63416254       1.21994843       1.48234136 
H      10.42596077       2.75882351       2.17849403      -0.78415258      -1.11376392      -4.63278320 
H       7.84709808      12.39892600       1.68009797      -0.61247796       2.43796339       1.30507098 
C       5.10446857       0.01629480       5.43115808      -2.04516051       1.42084056      -1.48512843 
H       0.13415466      11.57476632       6.92770605       0.48286555       2.63476284      -4.03089562 
H       4.63896691       1.14092489       5.32507131       1.37921389      -2.87586703       0.06215540 
H       4.56758494      12.21555062       4.64682390       1.83696233       1.92206174       2.62409328 
H       5.75682290      12.90259859       6.35521390      -0.81742780      -0.48192556      -1.59305718 
O       9.23552654       0.99963733       2.86373709      -0.83190980       0.37116345       2.77373458 
O       0.72360947       2.54105099      10.56631038      -3.88949985       1.83261871       3.51279207 
C       4.74140766       0.08117020       8.82559290       0.71546916      -1.52185202       2.65016581 
H       5.79115335      11.62790364      10.55689881      -5.26377053      -0.64104086      -1.69266018 
H       5.50715558       1.05903910       9.29662952      -2.53601088      -3.11347195      -1.32973866 
H       3.47027789       0.20055882       9.01092144       4.12274932      -0.31169537      -1.40955342 
H       5.44028071      12.10086985       8.34143435      -2.75245716       3.33025607       0.71976290 
C       5.12867871      10.24251055       0.43032710      -2.85211724       3.67968393       2.10392719 
H       4.18458496      10.81537009       1.20848274       3.37027941      -1.72690934      -2.02682854 
H       3.77217057      12.20448298      11.93515526       3.60705797      -1.94661526       1.35444079 
H       4.60462864       9.20564287       0.16777325       1.96199817       2.13260630      -0.19715683 
H       6.28552063      10.67128503       0.64812727      -3.48110425      -1.90129391      -0.83740065 
C       8.88164265       8.61519809       1.11570985      -3.75582818      -1.55983030       0.61472613 
H       8.14759330       9.46241372       0.68073373       1.33193490      -2.22694729       0.11370447 
H       9.49729386       9.34986957       1.80637486      -0.10136626      -2.48497602      -1.32063901 
H       9.13252169       7.68237135       0.33298882       0.44945406       3.29088785       1.97255255 
H       8.07445487       7.87374453       1.78867683       2.44961101       2.50555410      -1.35990336 
O      11.56598566       4.31629153      12.03804012      -1.33830866       0.16259709       2.66371398 
O      12.62930091       2.92248735      11.59781274       3.40178674      -1.58449284      -3.21845524 
O      10.92023248      11.99127145       7.99618554       4.82025777       1.40194295       3.35791189 
O       0.22510106       0.12270274       4.56578361       4.32212347      -1.13911397       0.68973396 
O       9.61202603       1.50058856       4.44804846      -1.42291596      -1.65390080      -4.37352599 
O      10.59629179       4.39408176       0.62087727       1.24660409      -2.73412108      -2.58595045 
O       1.86902080       9.09603347       9.30727988      -5.35062189      -1.88745623      -3.72381383 
O       0.71811697       8.69538558       8.52904003       5.44735657       1.91906589       3.66761157 
O      10.54306197       8.02236414       5.92996503       3.81036797      -1.48436636      -5.78891428 
O      11.32574033       7.67825940       4.69478096      -3.56437457       1.76869491       5.96196804 
O       4.80514805      11.81159727      12.13336117      -2.85636778       0.13975541       2.19334194 
O       4.59301569      11.52161682      10.20239418       5.78007071       2.33022131      -1.33548662 