10
Lattice="8.0 0.0 0.0 0.0 8.0 0.0 0.0 0.0 8.0" Properties=species:S:1:pos:R:3:momenta:R:3:forces:R:3 energy=-431.04657869794346 pbc="T T T"
C      -0.00000000      -0.00000000      -0.00000000       8.14902623      -1.85076768      -0.12864561      -0.07156200       0.13271266       0.10117097 
H      -1.02258429       0.39951918       0.49642013       0.51278837      -0.07677632      -0.02635075       0.12570145      -0.03505351       0.15099870 
H       0.24895466      -1.10019367       0.42346500       0.21422796       1.19081460      -0.16695428       0.05918411      -0.05067558       0.01394846 
H       0.90097809       0.75041357       0.27720949       0.90697921       0.32744442      -0.11268857      -0.05598568       0.00933296      -0.09985165 
H      -0.12734846      -0.04973908      -1.19709462       0.64171912       0.40928499       0.43463921       0.05880644      -0.02721812      -0.11316918 
C       4.00000000      -0.00000000      -0.00000000     -12.99908749       0.73138921      -0.64551578      -0.00741629       0.07671359      -0.03969328 
H       3.19939776       0.60160492       0.66995128      -0.51796349      -0.30220311       0.38420168       0.03913165      -0.04666173       0.10050356 
H       4.43501006      -0.92910860       0.63186279      -1.37870950      -0.04276049       0.28303055       0.00028679      -0.05977206       0.05371015 
H       4.90342417       0.73682931      -0.30435911      -1.25498658      -0.02026960       0.14383102      -0.07210186       0.05495093      -0.07210806 
H       3.46216800      -0.40932563      -0.99745497      -0.87292613      -0.36615601      -0.16554747      -0.07604461      -0.05432914      -0.09550967 
10
Lattice="8.0 0.0 0.0 0.0 8.0 0.0 0.0 0.0 8.0" Properties=species:S:1:pos:R:3:momenta:R:3:forces:R:3 energy=-431.0291038500085 pbc="T T T"
C       0.02176376      -0.00373990      -0.00026709      10.67167673      -1.84278699      -0.12911628      -0.07934612       1.29388795       0.15548667 
H      -1.00482131       0.39756844       0.49540028       0.71967448      -0.06530201      -0.05719192       0.22898722      -0.03397979       0.10761272 
H       0.25898810      -1.07128326       0.41986162       0.40501445       1.18310781      -0.14581153       0.30824009      -0.96625517       0.33141156 
H       0.92805152       0.75829629       0.27429561       1.10920845       0.30951184      -0.10040308      -0.28197640      -0.18332841      -0.14414872 
H      -0.10638236      -0.03989777      -1.18662314       0.87211526       0.40476398       0.41739843       0.04332756      -0.07709025      -0.39946642 
C       3.97833884       0.00148013      -0.00128903     -10.64171330       0.73804800      -0.59621593      -0.03370890      -0.26650590      -0.05249595 
H       3.19199852       0.59457544       0.67901985      -0.29269167      -0.28130119       0.35608997      -0.14988498       0.06691593       0.14173777 
H       4.40680259      -0.93026154       0.63910868      -1.14096170      -0.04648921       0.31424292       0.00278010       0.01371944      -0.02886414 
H       4.87808974       0.73617116      -0.30100231      -1.03008889      -0.03509934       0.14162040       0.03972498       0.13220926      -0.11311652 
H       3.44605060      -0.41824214      -1.00151835      -0.67223381      -0.36445289      -0.20061298      -0.07814354       0.02042694       0.00184302 
10
Lattice="8.0 0.0 0.0 0.0 8.0 0.0 0.0 0.0 8.0" Properties=species:S:1:pos:R:3:momenta:R:3:forces:R:3 energy=-430.9647576007932 pbc="T T T"
C       0.04357006      -0.00747236      -0.00044296      10.65227715      -1.76349675      -0.03681624      -0.15643292       2.61993994       0.12001288 
H      -0.98687906       0.39581542       0.49409840       0.75494523      -0.07899318      -0.02744322       0.32838745      -0.03126180       0.06505527 
H       0.26904836      -1.04281327       0.41627811       0.41361532       1.13676863      -0.13990057       0.58100486      -2.06629929       0.73399722 
H       0.95453055       0.76588495       0.27187322       1.05157571       0.30003893      -0.10475103      -0.48291292      -0.36006907      -0.17919568 
H      -0.08541003      -0.02976059      -1.17643754       0.85180160       0.42530875       0.38872863      -0.00003873      -0.12709416      -0.69075140 
C       3.95663453       0.00301056      -0.00258626     -10.59525831       0.73415454      -0.67270345      -0.03307596      -0.64766963      -0.08619465 
H       3.18498740       0.58793284       0.68758385      -0.28664166      -0.26715926       0.35551374      -0.35258099       0.18836620       0.19736802 
H       4.37893324      -0.93141112       0.64693850      -1.12970318      -0.03775737       0.32500150      -0.00288822       0.09410035      -0.12525000 
H       4.85269866       0.73442719      -0.29743131      -1.04193794      -0.08746498       0.14255272       0.16880013       0.22627517      -0.16027028 
H       3.42965308      -0.42691012      -1.00680798      -0.67067392      -0.36139930      -0.23018207      -0.05026271       0.10371230       0.12522862 
10
Lattice="8.0 0.0 0.0 0.0 8.0 0.0 0.0 0.0 8.0" Properties=species:S:1:pos:R:3:momenta:R:3:forces:R:3 energy=-430.85206929941376 pbc="T T T"
C       0.06530796      -0.01107805      -0.00054443      10.58775920      -1.71140847      -0.07727132      -0.28796945       4.05966285       0.00195487 
H      -0.96830235       0.39394706       0.49396178       0.76584006      -0.06974610       0.00280283       0.41856694      -0.02575055       0.02119927 
H       0.27972203      -1.01568571       0.41259017       0.47129429       1.06665029      -0.15565382       0.86383457      -3.30033279       1.20622131 
H       0.98047275       0.77330912       0.26944459       1.06051802       0.31598362      -0.10679990      -0.66115162      -0.52382818      -0.20497631 
H      -0.06460259      -0.01917537      -1.16679552       0.85480249       0.44277074       0.39177209      -0.01857778      -0.17020324      -0.98025342 
C       3.93489806       0.00454660      -0.00395569     -10.58816099       0.73453971      -0.61597412       0.00055842      -1.03746246      -0.11954838 
H       3.17767284       0.58149765       0.69603069      -0.33774716      -0.26496174       0.32847923      -0.55586795       0.30694716       0.25637288 
H       4.35138454      -0.93248354       0.65471477      -1.14633534      -0.05057763       0.31326906      -0.01452436       0.17392124      -0.22475096 
H       4.82712001       0.73226001      -0.29380172      -1.04520464      -0.09207861       0.15435095       0.31230666       0.33127166      -0.21071176 
H       3.41407796      -0.43584253      -1.01252281      -0.62276593      -0.37117179      -0.23497499      -0.05717543       0.18577430       0.25449250 
10
Lattice="8.0 0.0 0.0 0.0 8.0 0.0 0.0 0.0 8.0" Properties=species:S:1:pos:R:3:momenta:R:3:forces:R:3 energy=-430.69808716821706 pbc="T T T"
C       0.08684985      -0.01452931      -0.00054757      10.49657324      -1.62260536      -0.01139901      -0.45389889       5.52319940      -0.18512493 
H      -0.94901724       0.39235618       0.49458884       0.79968366      -0.05928796       0.03768443       0.49422843      -0.01686104      -0.02006393 
H       0.29140600      -0.99103367       0.40957413       0.49274156       0.93514550      -0.08438907       1.13675260      -4.56929504       1.71214897 
H       1.00608230       0.78099848       0.26636425       1.04002154       0.32830561      -0.12704722      -0.82928964      -0.68187187      -0.22099760 
H      -0.04370987      -0.00816566      -1.15809714       0.84722017       0.44734118       0.32447839      -0.05808087      -0.20921036      -1.24993260 
C       3.91321817       0.00602553      -0.00532443     -10.59009534       0.70378025      -0.66285468       0.07358119      -1.40586882      -0.16493736 
H       3.16981389       0.57502220       0.70415312      -0.33935284      -0.26355676       0.34081143      -0.75535605       0.42459272       0.31833635 
H       4.32317794      -0.93342181       0.66215538      -1.14433414      -0.04676657       0.29459732      -0.01148593       0.23827897      -0.31626021 
H       4.80218682       0.73005351      -0.29024902      -1.00027303      -0.07179617       0.14197146       0.44964671       0.43001731      -0.25669652 
H       3.39924967      -0.44448099      -1.01852061      -0.60218482      -0.35055972      -0.25385303      -0.04609757       0.26701874       0.38352783 
10
Lattice="8.0 0.0 0.0 0.0 8.0 0.0 0.0 0.0 8.0" Properties=species:S:1:pos:R:3:momenta:R:3:forces:R:3 energy=-430.5192876861498 pbc="T T T"
C       0.10820393      -0.01773659      -0.00050892      10.47265489      -1.47861456       0.01903022      -0.63280193       6.88813810      -0.40088655 
H      -0.92985064       0.39093799       0.49525953       0.79370653      -0.06809294       0.01539599       0.56316596      -0.00751110      -0.06074893 
H       0.30373997      -0.96993542       0.40796151       0.51846958       0.77244336      -0.04355843       1.39735822      -5.75213632       2.20266763 
H       1.03094060       0.78918659       0.26306608       1.01004225       0.33067491      -0.12784847      -0.98457410      -0.83434290      -0.22814120 
H      -0.02268737       0.00271061      -1.15062243       0.86663694       0.44104052       0.29502590      -0.10439586      -0.24416648      -1.48615219 
C       3.89167061       0.00743376      -0.00673527     -10.54481568       0.69152413      -0.69768934       0.16357058      -1.74104036      -0.19882278 
H       3.16133025       0.56878513       0.71237721      -0.38056367      -0.25424114       0.33662764      -0.93929084       0.53038580       0.37293960 
H       4.29542644      -0.93444281       0.66937189      -1.15914080      -0.03868412       0.28355647      -0.00323450       0.30008899      -0.40648672 
H       4.77771345       0.72848831      -0.28692956      -0.99194820      -0.04388954       0.12813213       0.57222081       0.51606673      -0.29890542 
H       3.38488232      -0.45296529      -1.02416484      -0.58504185      -0.35216062      -0.20867210      -0.03201834       0.34451753       0.50453656 
10
Lattice="8.0 0.0 0.0 0.0 8.0 0.0 0.0 0.0 8.0" Properties=species:S:1:pos:R:3:momenta:R:3:forces:R:3 energy=-430.333312599946 pbc="T T T"
C       0.12962041      -0.02065799      -0.00058106      10.48642582      -1.34417237      -0.08592286      -0.76102463       8.07246062      -0.59190576 
H      -0.90975155       0.38936665       0.49525003       0.83745076      -0.05246553       0.00406831       0.60121643       0.01023306      -0.08792784 
H       0.31664681      -0.95271911       0.40756608       0.55021253       0.62934138       0.01562034       1.61949286      -6.78249174       2.64531753 
H       1.05533941       0.79665089       0.26012867       0.96486132       0.28548045      -0.12100889      -1.11895408      -0.97242871      -0.22821839 
H      -0.00176596       0.01355135      -1.14342053       0.86442274       0.44890882       0.28070632      -0.15204461      -0.27402298      -1.71986877 
C       3.87004406       0.00893797      -0.00815108     -10.60032677       0.70615917      -0.66890928       0.24150297      -2.03927671      -0.20503246 
H       3.15188026       0.56289202       0.72101531      -0.39135590      -0.21420370       0.39209476      -1.09902339       0.62090613       0.41166087 
H       4.26703214      -0.93584724       0.67605422      -1.16480643      -0.06616639       0.25980760       0.00950348       0.35929617      -0.49092352 
H       4.75391987       0.72708229      -0.28387971      -0.97837548      -0.06087833       0.09538489       0.68084439       0.58923349      -0.33693545 
H       3.37069707      -0.46132485      -1.02866469      -0.56850859      -0.33200351      -0.17184119      -0.02151340       0.41609067       0.60383378 
10
Lattice="8.0 0.0 0.0 0.0 8.0 0.0 0.0 0.0 8.0" Properties=species:S:1:pos:R:3:momenta:R:3:forces:R:3 energy=-430.1596439771522 pbc="T T T"
C       0.15104087      -0.02322780      -0.00081381      10.49791560      -1.14792904      -0.14184996      -0.84025451       9.02726822      -0.75016433 
H      -0.88890143       0.38835335       0.49530389       0.86748754      -0.03432853       0.00731738       0.62038655       0.02855790      -0.11113754 
H       0.33053494      -0.93906476       0.40903901       0.59453246       0.47437451       0.09440201       1.79573144      -7.60884825       3.01811162 
H       1.07848681       0.80328585       0.25676314       0.93716036       0.25405559      -0.15463600      -1.22191455      -1.08806366      -0.21868511 
H       0.01927853       0.02395694      -1.13706394       0.84637468       0.41298353       0.23418877      -0.19984570      -0.30115146      -1.92997231 
C       3.84835207       0.01029540      -0.00954738     -10.62219239       0.62167160      -0.65231597       0.28370443      -2.28296055      -0.18285519 
H       3.14271557       0.55789341       0.73081479      -0.38730340      -0.19403994       0.41816293      -1.23253339       0.69234718       0.42876581 
H       4.23834408      -0.93672138       0.68214242      -1.18829417      -0.03380902       0.23649646       0.02830399       0.40070093      -0.56219458 
H       4.73011071       0.72568954      -0.28152100      -0.96661787      -0.04475028       0.08268692       0.78612343       0.65435674      -0.37332357 
H       3.35666436      -0.46929478      -1.03201772      -0.57906280      -0.30822841      -0.12445253      -0.01970170       0.47779295       0.68145520 
10
Lattice="8.0 0.0 0.0 0.0 8.0 0.0 0.0 0.0 8.0" Properties=species:S:1:pos:R:3:momenta:R:3:forces:R:3 energy=-430.0247130865735 pbc="T T T"
C       0.17242301      -0.02532635      -0.00097300      10.43621652      -0.92855352      -0.05774997      -0.86074575       9.68081952      -0.88931798 
H      -0.86770895       0.38742672       0.49528699       0.86892001      -0.03391319      -0.00561294       0.62033043       0.04844779      -0.12645726 
H       0.34554296      -0.92987799       0.41230671       0.63405831       0.28666745       0.16776497       1.91380163      -8.15398062       3.27814248 
H       1.10052312       0.80934577       0.25268731       0.88509113       0.25069818      -0.18310913      -1.29905036      -1.18434068      -0.20023798 
H       0.03969030       0.03373205      -1.13263762       0.82415373       0.39142643       0.11885911      -0.23373635      -0.33023285      -2.06388766 
C       3.82674272       0.01150596      -0.01097136     -10.54036375       0.55577278      -0.66498281       0.30065845      -2.46949608      -0.13538736 
H       3.13274820       0.55314686       0.74126187      -0.43101593      -0.19735089       0.43363967      -1.33150419       0.74309358       0.41889187 
H       4.20976678      -0.93739816       0.68806264      -1.16537740      -0.01874021       0.23301854       0.04612567       0.43664878      -0.63052417 
H       4.70688903       0.72495379      -0.27982580      -0.93518210      -0.01252004       0.06714747       0.86536457       0.69821981      -0.39743438 
H       3.34248947      -0.47664977      -1.03481702      -0.57650051      -0.29348699      -0.10897490      -0.02124410       0.53082075       0.74621244 
10
Lattice="8.0 0.0 0.0 0.0 8.0 0.0 0.0 0.0 8.0" Properties=species:S:1:pos:R:3:momenta:R:3:forces:R:3 energy=-429.9409653675906 pbc="T T T"
C       0.19359351      -0.02711486      -0.00114593      10.30659330      -0.81515154      -0.14471284      -0.81547030      10.02264269      -0.97772736 
H      -0.84643536       0.38679452       0.49504029       0.87398385      -0.01607046      -0.00877949       0.60607948       0.06673436      -0.13534631 
H       0.36111071      -0.92564222       0.41727999       0.65593699       0.05635808       0.24777883       1.96640303      -8.38487109       3.40141085 
H       1.12216079       0.81537381       0.24834325       0.89728704       0.23027737      -0.16770352      -1.37188942      -1.27791331      -0.17951151 
H       0.05959544       0.04295570      -1.13020152       0.80104100       0.36286705       0.10068955      -0.24377816      -0.36684459      -2.12319579 
C       3.80536427       0.01268904      -0.01231493     -10.42752393       0.58144243      -0.67629980       0.29865446      -2.60241473      -0.07718236 
H       3.12160810       0.54860978       0.75188601      -0.47835586      -0.16343065       0.44696014      -1.39957848       0.77348445       0.38369935 
H       4.18135254      -0.93776622       0.69342873      -1.15778145       0.00463948       0.21954410       0.06727985       0.46607366      -0.69163540 
H       4.68430653       0.72539067      -0.27788996      -0.90933460       0.05072163       0.08143719       0.91688443       0.72159579      -0.40553002 
H       3.32871994      -0.48382274      -1.03749146      -0.56184633      -0.29165340      -0.09891416      -0.02458489       0.58151276       0.80501853 
10
Lattice="8.0 0.0 0.0 0.0 8.0 0.0 0.0 0.0 8.0" Properties=species:S:1:pos:R:3:momenta:R:3:forces:R:3 energy=-429.9180075672283 pbc="T T T"
C       0.21453929      -0.02858871      -0.00152745      10.22719195      -0.60028586      -0.23238180      -0.70491098       9.99447859      -0.91231119 
H      -0.82464682       0.38677083       0.49491198       0.91275342       0.01343362      -0.01199506       0.58177844       0.08032015      -0.13840848 
H       0.37779700      -0.92701052       0.42418222       0.70146204      -0.15924135       0.31569871       1.94432240      -8.24442152       3.35393373 
H       1.14382075       0.82094255       0.24394681       0.88481804       0.20818205      -0.19582277      -1.44222685      -1.36749717      -0.15950268 
H       0.07938174       0.05156441      -1.12836809       0.82674127       0.34632565       0.06302961      -0.27166488      -0.40476726      -2.16322648 
C       3.78401082       0.01387160      -0.01367960     -10.47254434       0.56650823      -0.69801243       0.30794068      -2.67587435       0.00647989 
H       3.10943356       0.54438816       0.76291683      -0.52139874      -0.18337136       0.45775222      -1.43853957       0.78438456       0.32068503 
H       4.15339487      -0.93729636       0.69868810      -1.15058311       0.03068403       0.22618786       0.09754614       0.49033213      -0.75211016 
H       4.66269281       0.72674687      -0.27529007      -0.87176736       0.05214340       0.13184549       0.96036912       0.71793134      -0.40467144 
H       3.31540249      -0.49074168      -1.03978552      -0.53667315      -0.27437840      -0.05630183      -0.03461451       0.62511353       0.84913178 
10
Lattice="8.0 0.0 0.0 0.0 8.0 0.0 0.0 0.0 8.0" Properties=species:S:1:pos:R:3:momenta:R:3:forces:R:3 energy=-429.95131471439777 pbc="T T T"
C       0.23534077      -0.02961532      -0.00199837      10.16228935      -0.41532289      -0.27920545      -0.57267473       9.62915823      -0.72832023 
H      -0.80217801       0.38725796       0.49449598       0.91162421       0.00855673      -0.01368664       0.55872175       0.08746521      -0.13869171 
H       0.39543854      -0.93370881       0.43228542       0.74441742      -0.36089794       0.35185793       1.85651256      -7.77622598       3.14398138 
H       1.16496303       0.82576144       0.23977861       0.84159365       0.17530261      -0.17042632      -1.47272454      -1.44401134      -0.13509223 
H       0.09938669       0.05979356      -1.12773719       0.81660879       0.31171964      -0.00626874      -0.32638320      -0.44690022      -2.15689577 
C       3.76267353       0.01500767      -0.01507632     -10.41635369       0.54674362      -0.61231158       0.36274593      -2.69950751       0.13194032 
H       3.09586520       0.54037411       0.77410338      -0.56781109      -0.13546093       0.46394358      -1.44735530       0.77785130       0.22954638 
H       4.12571260      -0.93641098       0.70390511      -1.10676938       0.04933165       0.19024763       0.15014439       0.51877077      -0.81982512 
H       4.64198217       0.72831367      -0.27228992      -0.84373567       0.07422887       0.12151269       0.96555912       0.69452714      -0.39821474 
H       3.30249079      -0.49732098      -1.04108491      -0.54186358      -0.25420135      -0.04566312      -0.07454599       0.65887240       0.87157173 
10
Lattice="8.0 0.0 0.0 0.0 8.0 0.0 0.0 0.0 8.0" Properties=species:S:1:pos:R:3:momenta:R:3:forces:R:3 energy=-430.02765299250524 pbc="T T T"
C       0.25623127      -0.03015939      -0.00267719      10.25461461      -0.14503480      -0.32908152      -0.43404509       8.97853624      -0.45881844 
H      -0.77984069       0.38691836       0.49434802       0.91296916      -0.01655627       0.00155297       0.55308082       0.09336437      -0.13920033 
H       0.41456268      -0.94446837       0.44227234       0.81360933      -0.51191528       0.45517133       1.72122502      -7.04349342       2.80223440 
H       1.18525485       0.82941197       0.23575109       0.82076754       0.12895957      -0.16074686      -1.47704822      -1.49628463      -0.10989496 
H       0.11899132       0.06695199      -1.12884347       0.80146688       0.26678778      -0.07281523      -0.34826187      -0.48623997      -2.11017786 
C       3.74123128       0.01603579      -0.01628776     -10.52694497       0.45117319      -0.59961349       0.42753560      -2.66193249       0.26265674 
H       3.08187704       0.53671492       0.78559745      -0.58344376      -0.14407081       0.47383169      -1.44020358       0.76505836       0.12540127 
H       4.09791624      -0.93501046       0.70829115      -1.15350778       0.07228985       0.17524526       0.19453540       0.52966841      -0.86966608 
H       4.62208402       0.73072776      -0.26966355      -0.80312628       0.10714592       0.08783954       0.93356291       0.63886523      -0.37908703 
H       3.28939007      -0.50295389      -1.04177293      -0.53640472      -0.20877914      -0.03138370      -0.13038099       0.68245791       0.87655231 
10
Lattice="8.0 0.0 0.0 0.0 8.0 0.0 0.0 0.0 8.0" Properties=species:S:1:pos:R:3:momenta:R:3:forces:R:3 energy=-430.13384955907765 pbc="T T T"
C       0.27711606      -0.03029605      -0.00338632      10.15740785       0.03813522      -0.38163317      -0.21909183       8.10131602      -0.13495499 
H      -0.75728152       0.38697904       0.49375460       0.93620101       0.00585003      -0.02487478       0.53386350       0.09626899      -0.13560105 
H       0.43488143      -0.95855605       0.45469900       0.85356440      -0.62847980       0.55958748       1.54179998      -6.10317420       2.35807450 
H       1.20494329       0.83172659       0.23158722       0.77363901       0.07815245      -0.18459330      -1.46318439      -1.52501614      -0.08277566 
H       0.13899645       0.07297172      -1.13147068       0.83763950       0.23166077      -0.13106286      -0.29620067      -0.53441214      -2.01393465 
C       3.71974752       0.01693178      -0.01749563     -10.46784922       0.38500295      -0.59615220       0.42130637      -2.58441774       0.40274248 
H       3.06746577       0.53329630       0.79684751      -0.61501872      -0.13825072       0.47240797      -1.42154313       0.75189968       0.01213805 
H       4.06963791      -0.93231837       0.71290174      -1.14367421       0.14024567       0.19720044       0.20829801       0.52727361      -0.92095250 
H       4.60263387       0.73334671      -0.26745045      -0.78007434       0.11567055       0.08132018       0.88813764       0.57304625      -0.35516681 
H       3.27609532      -0.50820166      -1.04204642      -0.55183527      -0.22798712       0.00780024      -0.19338547       0.69721567       0.87043062 
10
Lattice="8.0 0.0 0.0 0.0 8.0 0.0 0.0 0.0 8.0" Properties=species:S:1:pos:R:3:momenta:R:3:forces:R:3 energy=-430.25679421920654 pbc="T T T"
C       0.29779688      -0.03008275      -0.00416176      10.06457884       0.15694341      -0.38307702       0.00141468       7.03974814       0.22428839 
H      -0.73386294       0.38739699       0.49277730       0.98749849       0.02504950      -0.04718073       0.50137537       0.09875916      -0.12248064 
H       0.45664178      -0.97586369       0.46938576       0.90893375      -0.75157733       0.64307371       1.31519791      -5.00001545       1.82764703 
H       1.22366590       0.83308809       0.22672011       0.75253355       0.04379653      -0.20882061      -1.43120263      -1.53174157      -0.05137128 
H       0.15924400       0.07864251      -1.13543772       0.80961547       0.22450638      -0.18416627      -0.23907159      -0.58898187      -1.87808204 
C       3.69829633       0.01764643      -0.01872420     -10.45144232       0.32427449      -0.63853399       0.43872216      -2.44183682       0.56997413 
H       3.05254181       0.53038876       0.80847223      -0.61315967      -0.12008475       0.48132095      -1.37821688       0.72619644      -0.12290188 
H       4.04171992      -0.92868543       0.71766458      -1.14364845       0.14892922       0.18938732       0.24916695       0.51479045      -0.96776927 
H       4.58420757       0.73679068      -0.26573618      -0.72965005       0.16140669       0.06327645       0.80534232       0.48130600      -0.32275985 
H       3.26239406      -0.51357077      -1.04114445      -0.58525962      -0.21324414       0.08472018      -0.26272830       0.70177552       0.84345541 
10
Lattice="8.0 0.0 0.0 0.0 8.0 0.0 0.0 0.0 8.0" Properties=species:S:1:pos:R:3:momenta:R:3:forces:R:3 energy=-430.3773835180191 pbc="T T T"
C       0.31840480      -0.02962100      -0.00497408      10.04556258       0.29431807      -0.46170286       0.22138037       5.87521596       0.56738976 
H      -0.70917962       0.38807891       0.49178486       1.01993033       0.03676104      -0.03332650       0.46665198       0.11925865      -0.09733635 
H       0.47877236      -0.99590199       0.48595781       0.92562273      -0.87362166       0.69805730       1.04417025      -3.82165544       1.24754297 
H       1.24208453       0.83272591       0.22144823       0.74714911      -0.05939784      -0.21831895      -1.38380776      -1.51479714      -0.01751446 
H       0.17869687       0.08446083      -1.14088859       0.79844318       0.23578073      -0.24366831      -0.18315690      -0.64794904      -1.69256976 
C       3.67685290       0.01826455      -0.01996430     -10.48991474       0.28685478      -0.53904270       0.49560484      -2.24275785       0.76497370 
H       3.03695187       0.52793157       0.81981850      -0.66211353      -0.10080499       0.45589085      -1.32327003       0.69286510      -0.26461310 
H       4.01448435      -0.92475923       0.72172133      -1.08546851       0.17024459       0.15365431       0.31015444       0.48209932      -1.00090737 
H       4.56666531       0.74095557      -0.26428996      -0.70089858       0.17387540       0.06902396       0.69437892       0.37047403      -0.28484986 
H       3.24803193      -0.51817172      -1.03839458      -0.59831256      -0.16401011       0.11943292      -0.34210612       0.68724642       0.77788447 
10
Lattice="8.0 0.0 0.0 0.0 8.0 0.0 0.0 0.0 8.0" Properties=species:S:1:pos:R:3:momenta:R:3:forces:R:3 energy=-430.4766974459739 pbc="T T T"
C       0.33893038      -0.02892249      -0.00598413      10.06376291       0.45570413      -0.51501388       0.41703102       4.68428210       0.91334091 
H      -0.68421272       0.38931774       0.49083039       1.01522080       0.04784560      -0.03015267       0.40178690       0.13748491      -0.06609340 
H       0.50167633      -1.01833565       0.50383544       0.93529164      -0.96335044       0.76959353       0.78968808      -2.63193942       0.64875717 
H       1.26025627       0.83097499       0.21622933       0.74448410      -0.07369690      -0.21325933      -1.32662490      -1.47625864       0.01612844 
H       0.19800953       0.09004487      -1.14701724       0.80365052       0.21385325      -0.27555141      -0.14055037      -0.70522095      -1.50219393 
C       3.65549368       0.01874105      -0.02103493     -10.42745543       0.17061057      -0.49815768       0.57943985      -1.99870043       0.95826861 
H       3.01985173       0.52558885       0.83089471      -0.71496569      -0.10923259       0.44381511      -1.25586566       0.65123582      -0.41721073 
H       3.98797305      -0.92028454       0.72539344      -1.09157370       0.18887878       0.13827844       0.38990564       0.43304052      -1.01702817 
H       4.54979206       0.74595289      -0.26282509      -0.69601443       0.21797489       0.05007235       0.55743228       0.24181119      -0.23873902 
H       3.23309483      -0.52194045      -1.03539062      -0.63240073      -0.14858729       0.13037554      -0.41224284       0.66426489       0.70477012 
10
Lattice="8.0 0.0 0.0 0.0 8.0 0.0 0.0 0.0 8.0" Properties=species:S:1:pos:R:3:momenta:R:3:forces:R:3 energy=-430.5425557141168 pbc="T T T"
C       0.35949326      -0.02785278      -0.00700426      10.05228020       0.56387130      -0.41417471       0.60363868       3.56697598       1.20227588 
H      -0.65947565       0.39033009       0.48974466       1.01858125       0.04982609      -0.03935082       0.30123408       0.15453603      -0.03196046 
H       0.52505014      -1.04221276       0.52254845       0.98950988      -0.98670906       0.75193019       0.60664578      -1.52646917       0.07956252 
H       1.27826819       0.82879390       0.21077989       0.73192840      -0.11192926      -0.23254152      -1.26680839      -1.42202079       0.04982638 
H       0.21725327       0.09445037      -1.15386233       0.79273248       0.15854437      -0.28472345      -0.10576909      -0.75736764      -1.30280424 
C       3.63419677       0.01904261      -0.02206145     -10.39797602       0.14800380      -0.54246648       0.66576375      -1.73447830       1.15659620 